
***************************************************************
*                 Welcome to use GPUMD                        *
*     (Graphics Processing Units Molecular Dynamics)          *
*                     version 5.3                             *
*              This is the gpumd executable                   *
***************************************************************


---------------------------------------------------------------
Compiling options:
---------------------------------------------------------------

DEBUG is off: Use different PRNG seeds for different runs.

---------------------------------------------------------------
GPU information:
---------------------------------------------------------------

number of GPUs = 1
Device id:                   0
    Device name:             NVIDIA A100-SXM4-80GB
    Compute capability:      8.0
    Amount of global memory: 79.2507 GB
    Number of SMs:           108

---------------------------------------------------------------
Started running GPUMD.
---------------------------------------------------------------


---------------------------------------------------------------
Started initializing positions and related parameters.
---------------------------------------------------------------

Number of atoms is 96000.
Use periodic boundary conditions along x.
Use periodic boundary conditions along y.
Use periodic boundary conditions along z.
Box matrix h = [a, b, c] is
    1.2775500000e+02    0.0000000000e+00    0.0000000000e+00
    0.0000000000e+00    1.2775500000e+02    0.0000000000e+00
    0.0000000000e+00    0.0000000000e+00    1.2775500000e+02
Inverse box matrix g = inv(h) is
    7.8274822903e-03    0.0000000000e+00    0.0000000000e+00
    0.0000000000e+00    7.8274822903e-03    0.0000000000e+00
    0.0000000000e+00    0.0000000000e+00    7.8274822903e-03
Specify initial velocities here.
Have no grouping method.
There are 5 atom types.
    8000 atoms of type 0.
    16000 atoms of type 1.
    40000 atoms of type 2.
    8000 atoms of type 3.
    24000 atoms of type 4.
Initialized velocities with data in model.xyz.

---------------------------------------------------------------
Finished initializing positions and related parameters.
---------------------------------------------------------------


---------------------------------------------------------------
Started executing the commands in run.in.
CUDA Error:
    File:       force/neighbor.cu
    Line:       748
    Error code: 700
    Error text: an illegal memory access was encountered
---------------------------------------------------------------

Use the NEP4 potential with 5 atom types.
    type 0 (C with Z = 6).
    type 1 (N with Z = 7).
    type 2 (H with Z = 1).
    type 3 (Pb with Z = 82).
    type 4 (I with Z = 53).
    radial cutoff = 8 A.
    angular cutoff = 4 A.
    MN_radial = 113.
    enlarged MN_radial = 142.
    enlarged MN_angular = 23.
    n_max_radial = 4.
    n_max_angular = 4.
    basis_size_radial = 8.
    basis_size_angular = 8.
    l_max_3body = 4.
    has_q_222 = 2.
    has_q_1111 = 0.
    has_q_112 = 0.
    has_q_123 = 0.
    has_q_233 = 0.
    ANN = 30-30-1.
    number of neural network parameters = 4801.
    number of descriptor parameters = 2250.
    total number of parameters = 7051.
Use NVE ensemble for this run.
Compute HAC.
    sample interval is 1.
    Nc is 400000
    output_interval is 10
Dump restart every 10000 steps.
Dump position.
    every 1000 steps.
Run 4000000 steps.
